# Probe 0 (0 0.0005 0.0005)
#         Probe               0
#          Time
